<?xml version="1.0" encoding="UTF-8"?>

<!-- generated on 2023-03-02 15:22:55 by Eclipse SUMO GUI Version 1.14.1
<configuration xmlns:xsi="http://www.w3.org/2001/XMLSchema-instance" xsi:noNamespaceSchemaLocation="http://sumo.dlr.de/xsd/sumoConfiguration.xsd">

    <input>
        <net-file value="C:\Users\tadhg\OneDrive\Desktop\FYP\basic-light-systems\no-rules\network1.net.xml"/>
        <route-files value="C:\Users\tadhg\OneDrive\Desktop\FYP\basic-light-systems\no-rules\routes.rou.xml"/>
    </input>

    <output>
        <tripinfo-output value="C:\Users\tadhg\OneDrive\Desktop\FYP\basic-light-systems\no-rules\tripinfo.xml"/>
    </output>

    <time>
        <begin value="0"/>
        <end value="2000"/>
    </time>

    <report>
        <verbose value="true"/>
        <no-step-log value="true"/>
    </report>

</configuration>
-->

<tripinfos xmlns:xsi="http://www.w3.org/2001/XMLSchema-instance" xsi:noNamespaceSchemaLocation="http://sumo.dlr.de/xsd/tripinfo_file.xsd">
    <tripinfo id="0" depart="0.00" departLane="-E2_0" departPos="5.10" departSpeed="0.00" departDelay="0.00" arrival="76.00" arrivalLane="E0_0" arrivalPos="492.80" arrivalSpeed="14.11" duration="76.00" routeLength="989.53" waitingTime="0.00" waitingCount="0" stopTime="0.00" timeLoss="8.08" rerouteNo="0" devices="tripinfo_0" vType="DEFAULT_VEHTYPE" speedFactor="1.06" vaporized=""/>
    <tripinfo id="3" depart="3.00" departLane="-E3_0" departPos="5.10" departSpeed="0.00" departDelay="0.00" arrival="81.00" arrivalLane="E0_0" arrivalPos="492.80" arrivalSpeed="13.45" duration="78.00" routeLength="994.90" waitingTime="0.00" waitingCount="0" stopTime="0.00" timeLoss="6.39" rerouteNo="0" devices="tripinfo_3" vType="DEFAULT_VEHTYPE" speedFactor="1.01" vaporized=""/>
    <tripinfo id="3.1" depart="6.00" departLane="-E3_0" departPos="5.10" departSpeed="0.00" departDelay="3.00" arrival="82.00" arrivalLane="E0_0" arrivalPos="492.80" arrivalSpeed="14.17" duration="76.00" routeLength="994.90" waitingTime="0.00" waitingCount="0" stopTime="0.00" timeLoss="9.81" rerouteNo="0" devices="tripinfo_3.1" vType="DEFAULT_VEHTYPE" speedFactor="1.08" vaporized=""/>
    <tripinfo id="3.2" depart="9.00" departLane="-E3_0" departPos="5.10" departSpeed="0.00" departDelay="6.00" arrival="85.00" arrivalLane="E0_0" arrivalPos="492.80" arrivalSpeed="13.73" duration="76.00" routeLength="994.90" waitingTime="0.00" waitingCount="0" stopTime="0.00" timeLoss="6.46" rerouteNo="0" devices="tripinfo_3.2" vType="DEFAULT_VEHTYPE" speedFactor="1.03" vaporized=""/>
    <tripinfo id="3.3" depart="12.00" departLane="-E3_0" departPos="5.10" departSpeed="0.00" departDelay="9.00" arrival="106.00" arrivalLane="E0_0" arrivalPos="492.80" arrivalSpeed="11.02" duration="94.00" routeLength="994.90" waitingTime="0.00" waitingCount="0" stopTime="0.00" timeLoss="7.15" rerouteNo="0" devices="tripinfo_3.3" vType="DEFAULT_VEHTYPE" speedFactor="0.83" vaporized=""/>
    <tripinfo id="9" depart="15.00" departLane="-E3_0" departPos="5.10" departSpeed="0.00" departDelay="6.00" arrival="108.00" arrivalLane="E0_0" arrivalPos="492.80" arrivalSpeed="11.76" duration="93.00" routeLength="994.90" waitingTime="0.00" waitingCount="0" stopTime="0.00" timeLoss="15.73" rerouteNo="0" devices="tripinfo_9" vType="DEFAULT_VEHTYPE" speedFactor="0.94" vaporized=""/>
    <tripinfo id="9.1" depart="18.00" departLane="-E3_0" departPos="5.10" departSpeed="0.00" departDelay="9.00" arrival="109.00" arrivalLane="E0_0" arrivalPos="492.80" arrivalSpeed="13.76" duration="91.00" routeLength="994.90" waitingTime="0.00" waitingCount="0" stopTime="0.00" timeLoss="29.00" rerouteNo="0" devices="tripinfo_9.1" vType="DEFAULT_VEHTYPE" speedFactor="1.16" vaporized=""/>
    <tripinfo id="10" depart="27.00" departLane="-E3_0" departPos="5.10" departSpeed="0.00" departDelay="17.00" arrival="110.00" arrivalLane="E2_0" arrivalPos="492.80" arrivalSpeed="13.45" duration="83.00" routeLength="989.53" waitingTime="0.00" waitingCount="0" stopTime="0.00" timeLoss="8.30" rerouteNo="0" devices="tripinfo_10" vType="DEFAULT_VEHTYPE" speedFactor="0.97" vaporized=""/>
    <tripinfo id="9.2" depart="21.00" departLane="-E3_0" departPos="5.10" departSpeed="0.00" departDelay="12.00" arrival="111.00" arrivalLane="E0_0" arrivalPos="492.80" arrivalSpeed="13.93" duration="90.00" routeLength="994.90" waitingTime="0.00" waitingCount="0" stopTime="0.00" timeLoss="19.07" rerouteNo="0" devices="tripinfo_9.2" vType="DEFAULT_VEHTYPE" speedFactor="1.02" vaporized=""/>
    <tripinfo id="9.3" depart="24.00" departLane="-E3_0" departPos="5.10" departSpeed="0.00" departDelay="15.00" arrival="113.00" arrivalLane="E0_0" arrivalPos="492.80" arrivalSpeed="13.07" duration="89.00" routeLength="994.90" waitingTime="0.00" waitingCount="0" stopTime="0.00" timeLoss="17.30" rerouteNo="0" devices="tripinfo_9.3" vType="DEFAULT_VEHTYPE" speedFactor="1.01" vaporized=""/>
    <tripinfo id="10.1" depart="30.00" departLane="-E3_0" departPos="5.10" departSpeed="0.00" departDelay="20.00" arrival="119.00" arrivalLane="E2_0" arrivalPos="492.80" arrivalSpeed="12.01" duration="89.00" routeLength="989.53" waitingTime="0.00" waitingCount="0" stopTime="0.00" timeLoss="7.66" rerouteNo="0" devices="tripinfo_10.1" vType="DEFAULT_VEHTYPE" speedFactor="0.89" vaporized=""/>
    <tripinfo id="12" depart="39.00" departLane="-E3_0" departPos="5.10" departSpeed="0.00" departDelay="27.00" arrival="122.00" arrivalLane="E1_0" arrivalPos="492.80" arrivalSpeed="15.74" duration="83.00" routeLength="994.70" waitingTime="0.00" waitingCount="0" stopTime="0.00" timeLoss="20.82" rerouteNo="0" devices="tripinfo_12" vType="DEFAULT_VEHTYPE" speedFactor="1.18" vaporized=""/>
    <tripinfo id="12.1" depart="42.00" departLane="-E3_0" departPos="5.10" departSpeed="0.00" departDelay="30.00" arrival="124.00" arrivalLane="E1_0" arrivalPos="492.80" arrivalSpeed="15.49" duration="82.00" routeLength="994.70" waitingTime="0.00" waitingCount="0" stopTime="0.00" timeLoss="18.89" rerouteNo="0" devices="tripinfo_12.1" vType="DEFAULT_VEHTYPE" speedFactor="1.15" vaporized=""/>
    <tripinfo id="10.2" depart="33.00" departLane="-E3_0" departPos="5.10" departSpeed="0.00" departDelay="23.00" arrival="130.00" arrivalLane="E2_0" arrivalPos="492.80" arrivalSpeed="10.82" duration="97.00" routeLength="989.53" waitingTime="0.00" waitingCount="0" stopTime="0.00" timeLoss="9.36" rerouteNo="0" devices="tripinfo_10.2" vType="DEFAULT_VEHTYPE" speedFactor="0.83" vaporized=""/>
    <tripinfo id="10.3" depart="36.00" departLane="-E3_0" departPos="5.10" departSpeed="0.00" departDelay="26.00" arrival="131.00" arrivalLane="E2_0" arrivalPos="492.80" arrivalSpeed="11.11" duration="95.00" routeLength="989.53" waitingTime="0.00" waitingCount="0" stopTime="0.00" timeLoss="12.39" rerouteNo="0" devices="tripinfo_10.3" vType="DEFAULT_VEHTYPE" speedFactor="0.87" vaporized=""/>
    <tripinfo id="12.2" depart="45.00" departLane="-E3_0" departPos="5.10" departSpeed="0.00" departDelay="33.00" arrival="132.00" arrivalLane="E1_0" arrivalPos="492.80" arrivalSpeed="13.57" duration="87.00" routeLength="994.70" waitingTime="0.00" waitingCount="0" stopTime="0.00" timeLoss="14.51" rerouteNo="0" devices="tripinfo_12.2" vType="DEFAULT_VEHTYPE" speedFactor="1.01" vaporized=""/>
    <tripinfo id="5" depart="5.00" departLane="-E0_0" departPos="5.10" departSpeed="0.00" departDelay="0.00" arrival="133.00" arrivalLane="E2_0" arrivalPos="492.80" arrivalSpeed="14.26" duration="128.00" routeLength="994.70" waitingTime="41.00" waitingCount="1" stopTime="0.00" timeLoss="61.03" rerouteNo="0" devices="tripinfo_5" vType="DEFAULT_VEHTYPE" speedFactor="1.09" vaporized=""/>
    <tripinfo id="12.3" depart="48.00" departLane="-E3_0" departPos="5.10" departSpeed="0.00" departDelay="36.00" arrival="133.00" arrivalLane="E1_0" arrivalPos="492.80" arrivalSpeed="16.01" duration="85.00" routeLength="994.70" waitingTime="0.00" waitingCount="0" stopTime="0.00" timeLoss="23.15" rerouteNo="0" devices="tripinfo_12.3" vType="DEFAULT_VEHTYPE" speedFactor="1.17" vaporized=""/>
    <tripinfo id="5.1" depart="8.00" departLane="-E0_0" departPos="5.10" departSpeed="0.00" departDelay="3.00" arrival="135.00" arrivalLane="E2_0" arrivalPos="492.80" arrivalSpeed="14.24" duration="127.00" routeLength="994.70" waitingTime="36.00" waitingCount="1" stopTime="0.00" timeLoss="55.94" rerouteNo="0" devices="tripinfo_5.1" vType="DEFAULT_VEHTYPE" speedFactor="1.03" vaporized=""/>
    <tripinfo id="5.2" depart="11.00" departLane="-E0_0" departPos="5.10" departSpeed="0.00" departDelay="6.00" arrival="136.00" arrivalLane="E2_0" arrivalPos="492.80" arrivalSpeed="14.23" duration="125.00" routeLength="994.70" waitingTime="35.00" waitingCount="1" stopTime="0.00" timeLoss="55.90" rerouteNo="0" devices="tripinfo_5.2" vType="DEFAULT_VEHTYPE" speedFactor="1.05" vaporized=""/>
    <tripinfo id="14" depart="51.00" departLane="-E3_0" departPos="5.10" departSpeed="0.00" departDelay="37.00" arrival="138.00" arrivalLane="E2_0" arrivalPos="492.80" arrivalSpeed="12.83" duration="87.00" routeLength="989.53" waitingTime="0.00" waitingCount="0" stopTime="0.00" timeLoss="14.83" rerouteNo="0" devices="tripinfo_14" vType="DEFAULT_VEHTYPE" speedFactor="0.99" vaporized=""/>
    <tripinfo id="14.1" depart="54.00" departLane="-E3_0" departPos="5.10" departSpeed="0.00" departDelay="40.00" arrival="140.00" arrivalLane="E2_0" arrivalPos="492.80" arrivalSpeed="13.16" duration="86.00" routeLength="989.53" waitingTime="0.00" waitingCount="0" stopTime="0.00" timeLoss="14.79" rerouteNo="0" devices="tripinfo_14.1" vType="DEFAULT_VEHTYPE" speedFactor="1.02" vaporized=""/>
    <tripinfo id="14.2" depart="57.00" departLane="-E3_0" departPos="5.10" departSpeed="0.00" departDelay="43.00" arrival="143.00" arrivalLane="E2_0" arrivalPos="492.80" arrivalSpeed="12.65" duration="86.00" routeLength="989.53" waitingTime="0.00" waitingCount="0" stopTime="0.00" timeLoss="11.59" rerouteNo="0" devices="tripinfo_14.2" vType="DEFAULT_VEHTYPE" speedFactor="0.97" vaporized=""/>
    <tripinfo id="14.3" depart="60.00" departLane="-E3_0" departPos="5.10" departSpeed="0.00" departDelay="46.00" arrival="144.00" arrivalLane="E2_0" arrivalPos="492.80" arrivalSpeed="15.17" duration="84.00" routeLength="989.53" waitingTime="0.00" waitingCount="0" stopTime="0.00" timeLoss="22.51" rerouteNo="0" devices="tripinfo_14.3" vType="DEFAULT_VEHTYPE" speedFactor="1.18" vaporized=""/>
    <tripinfo id="15" depart="63.00" departLane="-E3_0" departPos="5.10" departSpeed="0.00" departDelay="48.00" arrival="146.00" arrivalLane="E2_0" arrivalPos="492.80" arrivalSpeed="14.19" duration="83.00" routeLength="989.53" waitingTime="0.00" waitingCount="0" stopTime="0.00" timeLoss="17.48" rerouteNo="0" devices="tripinfo_15" vType="DEFAULT_VEHTYPE" speedFactor="1.10" vaporized=""/>
    <tripinfo id="15.1" depart="66.00" departLane="-E3_0" departPos="5.10" departSpeed="0.00" departDelay="51.00" arrival="155.00" arrivalLane="E2_0" arrivalPos="492.80" arrivalSpeed="11.38" duration="89.00" routeLength="989.53" waitingTime="0.00" waitingCount="0" stopTime="0.00" timeLoss="8.88" rerouteNo="0" devices="tripinfo_15.1" vType="DEFAULT_VEHTYPE" speedFactor="0.90" vaporized=""/>
    <tripinfo id="15.2" depart="69.00" departLane="-E3_0" departPos="5.10" departSpeed="0.00" departDelay="54.00" arrival="157.00" arrivalLane="E2_0" arrivalPos="492.80" arrivalSpeed="13.27" duration="88.00" routeLength="989.53" waitingTime="0.00" waitingCount="0" stopTime="0.00" timeLoss="17.10" rerouteNo="0" devices="tripinfo_15.2" vType="DEFAULT_VEHTYPE" speedFactor="1.03" vaporized=""/>
    <tripinfo id="15.3" depart="72.00" departLane="-E3_0" departPos="5.10" departSpeed="0.00" departDelay="57.00" arrival="158.00" arrivalLane="E2_0" arrivalPos="492.80" arrivalSpeed="12.93" duration="86.00" routeLength="989.53" waitingTime="0.00" waitingCount="0" stopTime="0.00" timeLoss="10.54" rerouteNo="0" devices="tripinfo_15.3" vType="DEFAULT_VEHTYPE" speedFactor="0.96" vaporized=""/>
    <tripinfo id="18" depart="75.00" departLane="-E3_0" departPos="5.10" departSpeed="0.00" departDelay="57.00" arrival="167.00" arrivalLane="E2_0" arrivalPos="492.80" arrivalSpeed="11.75" duration="92.00" routeLength="989.53" waitingTime="0.00" waitingCount="0" stopTime="0.00" timeLoss="7.65" rerouteNo="0" devices="tripinfo_18" vType="DEFAULT_VEHTYPE" speedFactor="0.85" vaporized=""/>
    <tripinfo id="18.1" depart="78.00" departLane="-E3_0" departPos="5.10" departSpeed="0.00" departDelay="60.00" arrival="169.00" arrivalLane="E2_0" arrivalPos="492.80" arrivalSpeed="14.78" duration="91.00" routeLength="989.53" waitingTime="0.00" waitingCount="0" stopTime="0.00" timeLoss="29.37" rerouteNo="0" devices="tripinfo_18.1" vType="DEFAULT_VEHTYPE" speedFactor="1.17" vaporized=""/>
    <tripinfo id="18.2" depart="81.00" departLane="-E3_0" departPos="5.10" departSpeed="0.00" departDelay="63.00" arrival="171.00" arrivalLane="E2_0" arrivalPos="492.80" arrivalSpeed="12.95" duration="90.00" routeLength="989.53" waitingTime="0.00" waitingCount="0" stopTime="0.00" timeLoss="18.36" rerouteNo="0" devices="tripinfo_18.2" vType="DEFAULT_VEHTYPE" speedFactor="1.02" vaporized=""/>
    <tripinfo id="18.3" depart="84.00" departLane="-E3_0" departPos="5.10" departSpeed="0.00" departDelay="66.00" arrival="172.00" arrivalLane="E2_0" arrivalPos="492.80" arrivalSpeed="14.30" duration="88.00" routeLength="989.53" waitingTime="0.00" waitingCount="0" stopTime="0.00" timeLoss="22.52" rerouteNo="0" devices="tripinfo_18.3" vType="DEFAULT_VEHTYPE" speedFactor="1.10" vaporized=""/>
    <tripinfo id="19" depart="87.00" departLane="-E3_0" departPos="5.10" departSpeed="0.00" departDelay="68.00" arrival="174.00" arrivalLane="E2_0" arrivalPos="492.80" arrivalSpeed="13.00" duration="87.00" routeLength="989.53" waitingTime="0.00" waitingCount="0" stopTime="0.00" timeLoss="15.01" rerouteNo="0" devices="tripinfo_19" vType="DEFAULT_VEHTYPE" speedFactor="1.00" vaporized=""/>
    <tripinfo id="19.1" depart="90.00" departLane="-E3_0" departPos="5.10" departSpeed="0.00" departDelay="71.00" arrival="176.00" arrivalLane="E2_0" arrivalPos="492.80" arrivalSpeed="13.60" duration="86.00" routeLength="989.53" waitingTime="0.00" waitingCount="0" stopTime="0.00" timeLoss="13.72" rerouteNo="0" devices="tripinfo_19.1" vType="DEFAULT_VEHTYPE" speedFactor="1.00" vaporized=""/>
    <tripinfo id="19.2" depart="93.00" departLane="-E3_0" departPos="5.10" departSpeed="0.00" departDelay="74.00" arrival="182.00" arrivalLane="E2_0" arrivalPos="492.80" arrivalSpeed="11.20" duration="89.00" routeLength="989.53" waitingTime="0.00" waitingCount="0" stopTime="0.00" timeLoss="8.72" rerouteNo="0" devices="tripinfo_19.2" vType="DEFAULT_VEHTYPE" speedFactor="0.90" vaporized=""/>
    <tripinfo id="19.3" depart="96.00" departLane="-E3_0" departPos="5.10" departSpeed="0.00" departDelay="77.00" arrival="184.00" arrivalLane="E2_0" arrivalPos="492.80" arrivalSpeed="15.62" duration="88.00" routeLength="989.53" waitingTime="0.00" waitingCount="0" stopTime="0.00" timeLoss="24.27" rerouteNo="0" devices="tripinfo_19.3" vType="DEFAULT_VEHTYPE" speedFactor="1.14" vaporized=""/>
    <tripinfo id="30" depart="99.00" departLane="-E3_0" departPos="5.10" departSpeed="0.00" departDelay="69.00" arrival="185.00" arrivalLane="E2_0" arrivalPos="492.80" arrivalSpeed="13.60" duration="86.00" routeLength="989.53" waitingTime="0.00" waitingCount="0" stopTime="0.00" timeLoss="15.25" rerouteNo="0" devices="tripinfo_30" vType="DEFAULT_VEHTYPE" speedFactor="1.02" vaporized=""/>
    <tripinfo id="30.1" depart="102.00" departLane="-E3_0" departPos="5.10" departSpeed="0.00" departDelay="72.00" arrival="191.00" arrivalLane="E2_0" arrivalPos="492.80" arrivalSpeed="12.36" duration="89.00" routeLength="989.53" waitingTime="0.00" waitingCount="0" stopTime="0.00" timeLoss="8.46" rerouteNo="0" devices="tripinfo_30.1" vType="DEFAULT_VEHTYPE" speedFactor="0.89" vaporized=""/>
    <tripinfo id="5.3" depart="14.00" departLane="-E0_0" departPos="5.10" departSpeed="0.00" departDelay="9.00" arrival="193.00" arrivalLane="E2_0" arrivalPos="492.80" arrivalSpeed="15.06" duration="179.00" routeLength="994.70" waitingTime="88.00" waitingCount="2" stopTime="0.00" timeLoss="114.06" rerouteNo="0" devices="tripinfo_5.3" vType="DEFAULT_VEHTYPE" speedFactor="1.12" vaporized=""/>
    <tripinfo id="36" depart="111.00" departLane="-E3_0" departPos="5.10" departSpeed="0.00" departDelay="75.00" arrival="195.00" arrivalLane="E1_0" arrivalPos="492.80" arrivalSpeed="14.34" duration="84.00" routeLength="994.70" waitingTime="0.00" waitingCount="0" stopTime="0.00" timeLoss="19.20" rerouteNo="0" devices="tripinfo_36" vType="DEFAULT_VEHTYPE" speedFactor="1.12" vaporized=""/>
    <tripinfo id="36.1" depart="114.00" departLane="-E3_0" departPos="5.10" departSpeed="0.00" departDelay="78.00" arrival="197.00" arrivalLane="E1_0" arrivalPos="492.80" arrivalSpeed="15.05" duration="83.00" routeLength="994.70" waitingTime="0.00" waitingCount="0" stopTime="0.00" timeLoss="17.06" rerouteNo="0" devices="tripinfo_36.1" vType="DEFAULT_VEHTYPE" speedFactor="1.10" vaporized=""/>
    <tripinfo id="30.2" depart="105.00" departLane="-E3_0" departPos="5.10" departSpeed="0.00" departDelay="75.00" arrival="201.00" arrivalLane="E2_0" arrivalPos="492.80" arrivalSpeed="10.54" duration="96.00" routeLength="989.53" waitingTime="0.00" waitingCount="0" stopTime="0.00" timeLoss="9.69" rerouteNo="0" devices="tripinfo_30.2" vType="DEFAULT_VEHTYPE" speedFactor="0.83" vaporized=""/>
    <tripinfo id="36.2" depart="117.00" departLane="-E3_0" departPos="5.10" departSpeed="0.00" departDelay="81.00" arrival="201.00" arrivalLane="E1_0" arrivalPos="492.80" arrivalSpeed="14.53" duration="84.00" routeLength="994.70" waitingTime="0.00" waitingCount="0" stopTime="0.00" timeLoss="16.17" rerouteNo="0" devices="tripinfo_36.2" vType="DEFAULT_VEHTYPE" speedFactor="1.06" vaporized=""/>
    <tripinfo id="30.3" depart="108.00" departLane="-E3_0" departPos="5.10" departSpeed="0.00" departDelay="78.00" arrival="203.00" arrivalLane="E2_0" arrivalPos="492.80" arrivalSpeed="12.22" duration="95.00" routeLength="989.53" waitingTime="0.00" waitingCount="0" stopTime="0.00" timeLoss="16.25" rerouteNo="0" devices="tripinfo_30.3" vType="DEFAULT_VEHTYPE" speedFactor="0.92" vaporized=""/>
    <tripinfo id="36.3" depart="120.00" departLane="-E3_0" departPos="5.10" departSpeed="0.00" departDelay="84.00" arrival="208.00" arrivalLane="E1_0" arrivalPos="492.80" arrivalSpeed="12.43" duration="88.00" routeLength="994.70" waitingTime="0.00" waitingCount="0" stopTime="0.00" timeLoss="11.84" rerouteNo="0" devices="tripinfo_36.3" vType="DEFAULT_VEHTYPE" speedFactor="0.96" vaporized=""/>
    <tripinfo id="38" depart="123.00" departLane="-E3_0" departPos="5.10" departSpeed="0.00" departDelay="85.00" arrival="210.00" arrivalLane="E1_0" arrivalPos="492.80" arrivalSpeed="13.02" duration="87.00" routeLength="994.70" waitingTime="0.00" waitingCount="0" stopTime="0.00" timeLoss="14.95" rerouteNo="0" devices="tripinfo_38" vType="DEFAULT_VEHTYPE" speedFactor="1.01" vaporized=""/>
    <tripinfo id="38.1" depart="126.00" departLane="-E3_0" departPos="5.10" departSpeed="0.00" departDelay="88.00" arrival="211.00" arrivalLane="E1_0" arrivalPos="492.80" arrivalSpeed="13.29" duration="85.00" routeLength="994.70" waitingTime="0.00" waitingCount="0" stopTime="0.00" timeLoss="15.18" rerouteNo="0" devices="tripinfo_38.1" vType="DEFAULT_VEHTYPE" speedFactor="1.03" vaporized=""/>
    <tripinfo id="38.2" depart="130.00" departLane="-E3_0" departPos="5.10" departSpeed="0.00" departDelay="92.00" arrival="213.00" arrivalLane="E1_0" arrivalPos="492.80" arrivalSpeed="14.27" duration="83.00" routeLength="994.70" waitingTime="0.00" waitingCount="0" stopTime="0.00" timeLoss="14.70" rerouteNo="0" devices="tripinfo_38.2" vType="DEFAULT_VEHTYPE" speedFactor="1.06" vaporized=""/>
    <tripinfo id="43" depart="136.00" departLane="-E3_0" departPos="5.10" departSpeed="0.00" departDelay="93.00" arrival="217.00" arrivalLane="E2_0" arrivalPos="492.80" arrivalSpeed="14.24" duration="81.00" routeLength="989.53" waitingTime="0.00" waitingCount="0" stopTime="0.00" timeLoss="11.32" rerouteNo="0" devices="tripinfo_43" vType="DEFAULT_VEHTYPE" speedFactor="1.03" vaporized=""/>
    <tripinfo id="38.3" depart="133.00" departLane="-E3_0" departPos="5.10" departSpeed="0.00" departDelay="95.00" arrival="218.00" arrivalLane="E1_0" arrivalPos="492.80" arrivalSpeed="12.23" duration="85.00" routeLength="994.70" waitingTime="0.00" waitingCount="0" stopTime="0.00" timeLoss="8.75" rerouteNo="0" devices="tripinfo_38.3" vType="DEFAULT_VEHTYPE" speedFactor="0.96" vaporized=""/>
    <tripinfo id="8" depart="17.00" departLane="-E0_0" departPos="5.10" departSpeed="0.00" departDelay="9.00" arrival="223.00" arrivalLane="E2_0" arrivalPos="492.80" arrivalSpeed="13.03" duration="206.00" routeLength="994.70" waitingTime="112.00" waitingCount="3" stopTime="0.00" timeLoss="132.57" rerouteNo="0" devices="tripinfo_8" vType="DEFAULT_VEHTYPE" speedFactor="0.99" vaporized=""/>
    <tripinfo id="46" depart="148.00" departLane="-E3_0" departPos="5.10" departSpeed="0.00" departDelay="102.00" arrival="229.00" arrivalLane="E1_0" arrivalPos="492.80" arrivalSpeed="17.02" duration="81.00" routeLength="994.70" waitingTime="0.00" waitingCount="0" stopTime="0.00" timeLoss="21.63" rerouteNo="0" devices="tripinfo_46" vType="DEFAULT_VEHTYPE" speedFactor="1.23" vaporized=""/>
    <tripinfo id="43.1" depart="139.00" departLane="-E3_0" departPos="5.10" departSpeed="0.00" departDelay="96.00" arrival="237.00" arrivalLane="E2_0" arrivalPos="492.80" arrivalSpeed="11.40" duration="98.00" routeLength="989.53" waitingTime="0.00" waitingCount="0" stopTime="0.00" timeLoss="9.82" rerouteNo="0" devices="tripinfo_43.1" vType="DEFAULT_VEHTYPE" speedFactor="0.82" vaporized=""/>
    <tripinfo id="46.1" depart="151.00" departLane="-E3_0" departPos="5.10" departSpeed="0.00" departDelay="105.00" arrival="238.00" arrivalLane="E1_0" arrivalPos="492.80" arrivalSpeed="13.34" duration="87.00" routeLength="994.70" waitingTime="0.00" waitingCount="0" stopTime="0.00" timeLoss="14.92" rerouteNo="0" devices="tripinfo_46.1" vType="DEFAULT_VEHTYPE" speedFactor="1.01" vaporized=""/>
    <tripinfo id="43.2" depart="142.00" departLane="-E3_0" departPos="5.10" departSpeed="0.00" departDelay="99.00" arrival="239.00" arrivalLane="E2_0" arrivalPos="492.80" arrivalSpeed="15.51" duration="97.00" routeLength="989.53" waitingTime="0.00" waitingCount="0" stopTime="0.00" timeLoss="31.92" rerouteNo="0" devices="tripinfo_43.2" vType="DEFAULT_VEHTYPE" speedFactor="1.12" vaporized=""/>
    <tripinfo id="43.3" depart="145.00" departLane="-E3_0" departPos="5.10" departSpeed="0.00" departDelay="102.00" arrival="240.00" arrivalLane="E2_0" arrivalPos="492.80" arrivalSpeed="13.06" duration="95.00" routeLength="989.53" waitingTime="0.00" waitingCount="0" stopTime="0.00" timeLoss="23.17" rerouteNo="0" devices="tripinfo_43.3" vType="DEFAULT_VEHTYPE" speedFactor="1.01" vaporized=""/>
    <tripinfo id="46.2" depart="154.00" departLane="-E3_0" departPos="5.10" departSpeed="0.00" departDelay="108.00" arrival="240.00" arrivalLane="E1_0" arrivalPos="492.80" arrivalSpeed="14.54" duration="86.00" routeLength="994.70" waitingTime="0.00" waitingCount="0" stopTime="0.00" timeLoss="20.71" rerouteNo="0" devices="tripinfo_46.2" vType="DEFAULT_VEHTYPE" speedFactor="1.12" vaporized=""/>
    <tripinfo id="46.3" depart="157.00" departLane="-E3_0" departPos="5.10" departSpeed="0.00" departDelay="111.00" arrival="242.00" arrivalLane="E1_0" arrivalPos="492.80" arrivalSpeed="12.81" duration="85.00" routeLength="994.70" waitingTime="0.00" waitingCount="0" stopTime="0.00" timeLoss="13.98" rerouteNo="0" devices="tripinfo_46.3" vType="DEFAULT_VEHTYPE" speedFactor="1.02" vaporized=""/>
    <tripinfo id="48" depart="160.00" departLane="-E3_0" departPos="5.10" departSpeed="0.00" departDelay="112.00" arrival="248.00" arrivalLane="E2_0" arrivalPos="492.80" arrivalSpeed="12.50" duration="88.00" routeLength="989.53" waitingTime="0.00" waitingCount="0" stopTime="0.00" timeLoss="10.93" rerouteNo="0" devices="tripinfo_48" vType="DEFAULT_VEHTYPE" speedFactor="0.94" vaporized=""/>
    <tripinfo id="48.1" depart="163.00" departLane="-E3_0" departPos="5.10" departSpeed="0.00" departDelay="115.00" arrival="250.00" arrivalLane="E2_0" arrivalPos="492.80" arrivalSpeed="15.64" duration="87.00" routeLength="989.53" waitingTime="0.00" waitingCount="0" stopTime="0.00" timeLoss="22.67" rerouteNo="0" devices="tripinfo_48.1" vType="DEFAULT_VEHTYPE" speedFactor="1.13" vaporized=""/>
    <tripinfo id="8.1" depart="20.00" departLane="-E0_0" departPos="5.10" departSpeed="0.00" departDelay="12.00" arrival="253.00" arrivalLane="E2_0" arrivalPos="492.80" arrivalSpeed="12.14" duration="233.00" routeLength="994.70" waitingTime="131.00" waitingCount="4" stopTime="0.00" timeLoss="154.88" rerouteNo="0" devices="tripinfo_8.1" vType="DEFAULT_VEHTYPE" speedFactor="0.93" vaporized=""/>
    <tripinfo id="8.2" depart="23.00" departLane="-E0_0" departPos="5.10" departSpeed="0.00" departDelay="15.00" arrival="259.00" arrivalLane="E2_0" arrivalPos="492.80" arrivalSpeed="11.86" duration="236.00" routeLength="994.70" waitingTime="124.00" waitingCount="4" stopTime="0.00" timeLoss="152.60" rerouteNo="0" devices="tripinfo_8.2" vType="DEFAULT_VEHTYPE" speedFactor="0.88" vaporized=""/>
    <tripinfo id="55" depart="172.00" departLane="-E3_0" departPos="5.10" departSpeed="0.00" departDelay="117.00" arrival="266.00" arrivalLane="E1_0" arrivalPos="492.80" arrivalSpeed="13.00" duration="94.00" routeLength="994.70" waitingTime="0.00" waitingCount="0" stopTime="0.00" timeLoss="21.02" rerouteNo="0" devices="tripinfo_55" vType="DEFAULT_VEHTYPE" speedFactor="0.99" vaporized=""/>
    <tripinfo id="55.1" depart="175.00" departLane="-E3_0" departPos="5.10" departSpeed="0.00" departDelay="120.00" arrival="268.00" arrivalLane="E1_0" arrivalPos="492.80" arrivalSpeed="15.06" duration="93.00" routeLength="994.70" waitingTime="0.00" waitingCount="0" stopTime="0.00" timeLoss="28.07" rerouteNo="0" devices="tripinfo_55.1" vType="DEFAULT_VEHTYPE" speedFactor="1.13" vaporized=""/>
    <tripinfo id="55.2" depart="178.00" departLane="-E3_0" departPos="5.10" departSpeed="0.00" departDelay="123.00" arrival="269.00" arrivalLane="E1_0" arrivalPos="492.80" arrivalSpeed="14.48" duration="91.00" routeLength="994.70" waitingTime="0.00" waitingCount="0" stopTime="0.00" timeLoss="22.28" rerouteNo="0" devices="tripinfo_55.2" vType="DEFAULT_VEHTYPE" speedFactor="1.05" vaporized=""/>
    <tripinfo id="48.2" depart="166.00" departLane="-E3_0" departPos="5.10" departSpeed="0.00" departDelay="118.00" arrival="275.00" arrivalLane="E2_0" arrivalPos="492.80" arrivalSpeed="8.89" duration="109.00" routeLength="989.53" waitingTime="0.00" waitingCount="0" stopTime="0.00" timeLoss="10.16" rerouteNo="0" devices="tripinfo_48.2" vType="DEFAULT_VEHTYPE" speedFactor="0.73" vaporized=""/>
    <tripinfo id="48.3" depart="169.00" departLane="-E3_0" departPos="5.10" departSpeed="0.00" departDelay="121.00" arrival="276.00" arrivalLane="E2_0" arrivalPos="492.80" arrivalSpeed="12.13" duration="107.00" routeLength="989.53" waitingTime="0.00" waitingCount="0" stopTime="0.00" timeLoss="43.74" rerouteNo="0" devices="tripinfo_48.3" vType="DEFAULT_VEHTYPE" speedFactor="1.14" vaporized=""/>
    <tripinfo id="55.3" depart="181.00" departLane="-E3_0" departPos="5.10" departSpeed="0.00" departDelay="126.00" arrival="277.00" arrivalLane="E1_0" arrivalPos="492.80" arrivalSpeed="11.45" duration="96.00" routeLength="994.70" waitingTime="0.00" waitingCount="0" stopTime="0.00" timeLoss="16.61" rerouteNo="0" devices="tripinfo_55.3" vType="DEFAULT_VEHTYPE" speedFactor="0.91" vaporized=""/>
    <tripinfo id="60" depart="184.00" departLane="-E3_0" departPos="5.10" departSpeed="0.00" departDelay="124.00" arrival="278.00" arrivalLane="E2_0" arrivalPos="492.80" arrivalSpeed="13.35" duration="94.00" routeLength="989.53" waitingTime="0.00" waitingCount="0" stopTime="0.00" timeLoss="27.36" rerouteNo="0" devices="tripinfo_60" vType="DEFAULT_VEHTYPE" speedFactor="1.08" vaporized=""/>
    <tripinfo id="60.1" depart="187.00" departLane="-E3_0" departPos="5.10" departSpeed="0.00" departDelay="127.00" arrival="280.00" arrivalLane="E2_0" arrivalPos="492.80" arrivalSpeed="14.13" duration="93.00" routeLength="989.53" waitingTime="0.00" waitingCount="0" stopTime="0.00" timeLoss="24.38" rerouteNo="0" devices="tripinfo_60.1" vType="DEFAULT_VEHTYPE" speedFactor="1.06" vaporized=""/>
    <tripinfo id="60.2" depart="190.00" departLane="-E3_0" departPos="5.10" departSpeed="0.00" departDelay="130.00" arrival="281.00" arrivalLane="E2_0" arrivalPos="492.80" arrivalSpeed="15.02" duration="91.00" routeLength="989.53" waitingTime="0.00" waitingCount="0" stopTime="0.00" timeLoss="25.61" rerouteNo="0" devices="tripinfo_60.2" vType="DEFAULT_VEHTYPE" speedFactor="1.10" vaporized=""/>
    <tripinfo id="60.3" depart="193.00" departLane="-E3_0" departPos="5.10" departSpeed="0.00" departDelay="133.00" arrival="283.00" arrivalLane="E2_0" arrivalPos="492.80" arrivalSpeed="13.47" duration="90.00" routeLength="989.53" waitingTime="0.00" waitingCount="0" stopTime="0.00" timeLoss="19.33" rerouteNo="0" devices="tripinfo_60.3" vType="DEFAULT_VEHTYPE" speedFactor="1.03" vaporized=""/>
    <tripinfo id="61" depart="196.00" departLane="-E3_0" departPos="5.10" departSpeed="0.00" departDelay="135.00" arrival="285.00" arrivalLane="E2_0" arrivalPos="492.80" arrivalSpeed="13.96" duration="89.00" routeLength="989.53" waitingTime="0.00" waitingCount="0" stopTime="0.00" timeLoss="18.73" rerouteNo="0" devices="tripinfo_61" vType="DEFAULT_VEHTYPE" speedFactor="1.03" vaporized=""/>